# vtk DataFile Version 5.1
vtk output
ASCII
DATASET POLYDATA
POINTS 10000 double
39.114481997 -9.5058764639 13.917362666 38.768993553 -9.8314783041 15.307806643 38.875190097 -10.793628857 14.093248186 
38.423183681 -11.020322977 15.769840315 39.319098422 -9.5204342672 12.58058787 38.548712706 -12.03028389 14.387179106 
39.041702155 -11.11649724 12.792477132 38.209345873 -3.1058015536 -5.1095781422 38.291390607 -4.9732470922 -4.9762641368 
37.867184215 -3.7719217399 -6.3771266399 37.885997596 -2.0645666726 -6.1743074234 34.076403221 -18.893736139 17.52961555 
34.781727502 -18.420962917 16.693596245 34.556919779 -17.710385341 18.174943541 34.567195492 -16.702857205 19.294873299 
33.852736852 -17.682905683 19.530063051 33.649181761 -18.697857748 18.668057756 33.744271946 -6.072172546 24.487646255 
33.847458437 -4.9384557728 24.263886036 32.751065394 -5.1863213278 25.223730412 32.752011391 -6.3449811645 25.413613955 
29.766295182 -24.991360774 15.319068449 29.405641444 -25.688484664 14.312510109 30.399389497 -24.881173822 13.677745925 
30.559722357 -24.335950672 14.842833093 30.083957922 -24.269189645 16.378073108 27.344359316 -27.181663053 -4.2887466348 
28.377282816 -26.1447171 -4.2689539179 28.420456291 -26.463564717 -3.0247626674 27.078084769 -27.763172743 -3.0794537002 
26.939330954 9.4519558675 -18.59592017 26.128761393 10.577587949 -17.929013129 27.717884608 10.219899042 -18.016539527 
23.47555515 -6.9431819206 34.950983328 23.242387133 -5.9908752731 34.32692563 22.487219216 -6.6035812359 35.802002455 
20.70719454 -3.3496258065 33.271158778 20.652848569 -3.9839478877 34.387486501 21.702612402 -3.7818023656 33.069355342 
21.309230536 -2.873728768 31.942967826 18.875747368 -3.8093412156 35.679979411 18.519265889 -4.4274090147 37.032618435 
19.697459925 -4.7600349204 36.505595872 17.32014571 -9.8829646077 46.117850667 16.209555044 -9.1926254064 46.943093522 
16.764622679 -8.8608578315 45.73550338 16.224920447 -10.183042841 48.209301905 16.920281813 -10.403164169 47.283449131 
14.389106211 -25.046758325 -16.807112505 13.627637223 -26.016919325 -16.192919613 12.995278051 -24.772873316 -16.582399191 
13.615985108 -23.741349047 -17.200738375 14.786953078 -24.016183442 -17.360236581 11.044259002 -26.662265248 53.492850472 
12.035306372 -25.823232891 52.408339179 11.992190206 -25.392067943 53.782993811 11.239381082 -25.936900034 54.887230611 
14.616667769 16.732795392 5.8531174316 15.378216792 17.422412309 5.4928368697 15.556252455 17.868672268 4.426776277 
14.281302899 16.803748983 4.6254628753 13.858163252 15.923880966 5.8614886437 14.752107385 16.350857177 7.1448115672 
8.7711565466 -16.670060853 58.600655516 8.2231081103 -15.341317141 58.706949545 7.6017546135 -16.762695078 58.564286913 
8.6845201243 -17.698926859 58.504465776 11.457770521 1.9102339061 -8.8107803479 10.8386177 0.15451000369 -8.820408292 
11.125066063 1.0139271742 -10.221671798 10.599873776 -0.42661940556 -10.149340521 10.521274413 -0.23727765433 -7.5011726031 
5.1909080154 -35.807464328 15.739567276 6.1000684904 -36.0618568 14.654697298 6.3313190065 -35.823899591 16.108919206 
5.5696446715 -35.603723177 17.254825845 6.2233089406 -1.1420945118 26.459763365 4.9693164246 -1.4017629219 26.738155059 
5.705975666 -0.9346918218 25.352717769 0.82324418126 -29.675341783 57.116609045 -0.28578827007 -28.953565166 57.208846903 
-0.4940548536 -30.207504843 57.027519487 -1.4529932099 -38.474877303 10.650531873 -0.86628171878 -38.461245398 9.4957827042 
0.023659019993 -38.374855352 10.558490867 -1.5279029841 -38.293878467 12.040209971 -3.5971908358 -5.3660522601 54.168282803 
-2.3223118959 -5.689174043 54.34978274 -3.2370105487 -5.5612316998 55.49358335 -4.9367764023 -3.2094057748 37.553394417 
-4.4724263347 -3.5483757826 38.901182164 -3.5732496508 -3.6286327481 38.035294525 -3.6661753372 -3.3917488961 36.777134856 
-4.7913561401 -2.9863478802 36.075952052 -5.4157559886 6.2609396342 9.9499057387 -5.4252722182 6.5601570017 8.5106879417 
-6.1345740836 7.2728889347 9.5743735421 -6.4633574368 7.1342458445 10.937116924 -8.8504828551 -13.607702936 58.365500639 
-9.9387416805 -12.708833639 58.429833558 -8.7431301027 -12.065578146 58.517534822 -10.106246039 -14.233967767 58.281087286 
-9.262964979 -15.147685578 58.2081684 -7.8006759948 11.084266362 4.5857368759 -8.1996584898 12.125670514 5.139506425 
-8.1823106163 11.931129412 6.4214076993 -7.7664315061 10.964657369 5.8797731368 -7.3211867285 9.9705330688 4.593503498 
-14.653470464 -32.954512742 55.587830622 -13.714371678 -33.791102221 54.599320089 -13.296404716 -32.958998911 55.908280775 
-13.9923623 -31.918186918 56.345685298 -13.09620918 18.46477017 1.9916326286 -12.978167414 18.45800675 0.34457360935 
-13.947527087 19.018717147 0.69159077628 -14.333277165 19.137581313 2.2871832979 -18.31076922 -34.467946868 35.67233382 
-17.401248478 -35.002732065 34.748357771 -16.901940614 -34.905372878 36.06012511 -17.985845591 -34.343424596 37.000216862 
-18.63919566 -29.934692469 56.246254274 -19.689428409 -28.840912759 56.293065588 -18.436995133 -28.714879747 56.643864206 
-19.825313063 -29.978214068 55.38653169 -18.935254538 -30.857972041 55.378427035 -20.756642028 20.208579748 -5.1687344333 
-20.178652347 20.440435049 -4.0598203123 -19.298930566 19.968480825 -5.1893854707 -20.431327047 19.787123413 -6.2367872871 
-22.805855043 -30.941642573 35.636686109 -22.179403643 -32.007523953 34.717838525 -21.953629702 -31.873666805 35.883723241 
-22.631282444 -30.727433187 36.937530518 -24.089995916 -22.935183004 47.261003359 -23.611518445 -25.065679265 47.409030408 
-23.766571986 -23.977926256 48.438816408 -23.909194815 -22.80721434 49.216836139 -24.033489962 -2.9470040174 41.181574604 
-24.013416478 -2.3165974918 39.810220206 -24.834355703 -3.565048692 39.90991967 -24.715072976 -4.2480729504 41.41777672 
-26.636508764 -16.596320149 36.283690216 -26.458231495 -17.864534626 36.567386169 -26.259999156 -17.023881061 37.773960454 
-26.381075617 -15.583107359 37.69817292 -26.673944706 -15.346436187 36.523687771 -30.4482254 -16.0676916 -12.560328228 
-29.928654639 -16.321114415 -13.589917152 -29.834433479 -15.468670942 -14.272524243 -29.900786102 -17.483044481 -13.030156024 
-30.47344235 -17.418835582 -11.749131721 -29.302783 -2.2482749619 28.164090627 -29.423758318 -1.0972689828 27.119397208 
-30.067091962 -1.8999002413 26.573484089 -30.002840182 -3.1214183867 27.323344701 -32.616093156 -23.436046052 11.012355965 
-32.397296196 -24.638288617 10.603286917 -32.165257029 -24.73396881 12.005578783 -31.999390999 17.226679259 -4.8246341978 
-31.7653405 17.662108162 -6.3207397955 -32.466718517 16.409014884 -5.8041621544 -32.501436351 15.592313747 -4.5622600815 
-32.071054711 16.526547457 -3.5828179364 -34.085699494 7.2690711696 10.256579362 -34.146971747 7.804740031 9.2541868466 
-33.912474674 8.7323584924 8.5132934369 -34.806583053 7.4339057358 7.9829596689 -34.958882292 6.5060690004 9.1163359705 
-38.153767114 -0.84589262938 7.4627828563 -38.148335324 -2.701918768 7.7552173554 -37.991169004 -1.2920886005 9.0510581584 
39.092048609 -8.2832239355 14.732685716 38.756588087 -8.5732775051 15.979242134 38.330450218 -9.7232468515 16.808949743 
37.610122539 -9.3121128259 -6.1435815377 37.360586103 -8.3802995135 -7.0810879796 37.662390024 -6.9190360284 -6.7366153155 
36.332751647 -0.51294154778 18.966651697 36.172009252 0.66514723539 18.082254325 35.25683028 0.69843803115 18.916950174 
35.330628407 -0.3203990044 19.942984863 33.154800436 -4.1079718526 24.618894414 31.518870975 4.7425726884 16.573505454 
30.379091054 4.8949065559 16.915351484 31.368705521 5.4773162435 15.7805967 30.122526547 4.0836754793 18.187488547 
31.184891375 3.9071301878 17.860998482 27.770590656 -26.37776031 -5.5607820916 25.653512955 -13.143974402 -22.032971568 
26.414727238 -12.238254034 -22.093120801 26.627236559 -13.430893176 -21.790406106 25.482608751 -14.3233562 -21.771331975 
22.665048673 -22.366427658 33.087345807 22.975514378 -21.389607126 33.6553318 23.330385295 -22.384923362 31.95799815 
23.652564964 -21.281887746 32.65211105 23.825406611 -20.282364772 33.350901187 23.185474278 -20.351555374 34.338413971 
21.710500143 -25.167349626 30.797987517 20.835650497 -25.631144119 31.496190769 20.91522768 -26.256715254 30.264364015 
18.035062999 -26.933310529 33.871127386 18.804669286 -26.701474678 32.978629256 18.81094107 -26.005355427 34.330359022 
18.893185627 -25.259972511 35.536508176 18.057304098 -25.972406028 35.771490614 17.703992431 -26.722088777 34.927744638 
16.38057198 -22.413794446 45.683557235 16.767920239 -22.652252288 44.355064215 17.188729175 -21.093730702 45.293048051 
17.480550161 -21.702404466 43.878935205 16.522413949 -21.359466124 46.684801811 17.867009027 13.798370463 -13.851743314 
17.839388505 12.922271542 -14.660241811 17.108320527 14.425127267 -12.776730272 11.408088187 -26.733766373 51.889484889 
12.190843529 -26.183824894 50.765603187 14.542691223 17.383112582 3.4025882244 7.1187609801 -28.460376743 56.727574138 
8.1816810304 -28.491140725 55.854674646 8.1046121852 -27.651992345 56.811026933 7.3046343819 -26.769417008 57.445555849 
6.32307646 -27.696660795 57.302499907 6.4753228333 -29.622657787 -11.655502957 7.4526650903 -29.251273443 -12.432741161 
7.6757178762 -30.660349953 -11.584129029 6.6970478965 -31.17093255 -10.621314986 5.831299007 -30.200540821 -10.852281106 
5.0025865257 -36.356310147 13.317650992 6.2186358234 -36.47279482 12.880142639 4.6608795245 -36.00125249 14.60057173 
4.3685862631 -34.941986959 22.422812427 3.6242323912 -34.858175401 23.276343246 3.7490416584 -34.717860911 24.690232163 
2.6570208401 -34.79802565 24.055709676 2.3386667217 -34.900419533 22.805119115 3.1405035226 -34.97298122 21.984045296 
-0.68704713696 -25.438786251 57.545370066 -0.060995403049 -26.754775645 57.433289581 0.71724920797 -25.569325426 57.569461937 
0.91168386311 -24.420981979 57.686589949 -0.18183127923 -23.988743489 57.700281407 0.42444947519 2.2428987138 14.073409622 
[...]
POINT_DATA 10000
SCALARS labels double
LOOKUP_TABLE default
0 0 0 0 0 0 0 0 0 
0 0 0 0 0 0 0 0 0 
0 0 0 0 0 0 0 0 0 
0 0 0 12 12 12 0 0 0 
0 0 0 0 0 0 0 0 0 
0 0 0 11 11 11 11 11 0 
0 0 0 14 14 14 14 14 14 
0 0 0 0 0 0 0 0 0 
0 0 0 0 0 0 0 0 0 
0 6.3636931705 7.6350932798 0 0 0 0 0 0 
0 0 0 0 0 0 0 0 0 
0 0 0 0 0 0 0 0 0 
0 0 0 0 15 15 15 15 0 
0 0 0 0 0 0 0 0 15 
15 15 15 0 0 0 0 0 0 
0 0 0 0 0 0 0 0 0 
0 0 0 0 0 0 0 0 0 
0 0 0 0 0 4.0901171416 11.242784379 0 0 
0 0 0 0 0 0 0 0 0 
0 0 0 0 0 0 0 0 0 
0 0 0 0 0 0 0 0 11 
11 11 11 0 0 0 0 0 0 
0 0 0 0 0 0 0 0 0 
0 0 0 0 0 14 14 14 0 
0 14 0 0 0 0 0 11 11 
11 11 11 0 0 0 0 0 0 
0 0 0 0 0 0 0 0 0 
0 0 0 0 0 0 0 0 0 
0 0 0 0 11 11 11 11 0 
0 0 0 0 0 0 0 11 11 
11 11 11 0 0 0 0 0 0 
0 15 15 15 0 0 0 0 0 
0 0 0 0 0 0 0 0 0 
0 0 0 0 0 0 0 0 0 
0 0 0 0 0 0 0 0 0 
0 0 0 0 0 0 0 0 0 
0 0 0 0 0 0 0 0 14 
14 14 14 14 12 12 12 12 0 
0 0 0 0 0 0 0 0 0 
0 0 11 11 11 0 0 0 0 
0 0 11 11 11 11 11 0 0 
0 0 0 0 0 0 0 0 0 
0 0 0 0 0 0 0 11 11 
11 0 0 0 0 0 0 0 0 
0 0 0 0 3.1721500424 6.2017138048 0 0 0 
0 0 0 15 15 15 0 0 0 
0 0 0 15 15 0 0 0 0 
0 0 0 0 0 0 0 0 0 
0 0 0 0 0 0 0 0 0 
0 0 0 0 0 0 0 0 0 
0 0 0 0 0 0 0 0 0 
0 0 0 0 12 12 0 0 0 
0 0 0 0 0 0 0 0 0 
12 12 12 13.474255585 0 0 11 11 0 
0 0 0 0 11 11 11 11 0 
0 0 0 0 0 0 0 0 0 
0 0 0 11 11 0 0 0 0 
0 0 0 0 0 11 11 11 0 
0 0 0 0 0 0 0 11 11 
11 11 0 0 0 0 0 15 15 
0 0 0 0 0 0 0 0 0 
0 0 0 0 0 0 0 0 0 
0 0 0 0 0 0 0 0 0 
0 0 0 0 0 0 14 14 11 
11 11 11 0 0 0 0 0 0 
0 0 0 0 11 11 11 11 11 
0 0 14 14 14 14 12 7.772548015 0 
0 0 0 0 0 0 0 0 0 
0 0 0 0 0 0 0 0 0 
0 0 0 0 11 11 0 0 0 
11 11 11 11 0 0 0 15 15 
15 0 0 0 0 0 0 0 0 
0 0 11 11 11 11 11 0 0 
0 0 0 0 0 0 15 15 15 
15 15 15 0 0 0 0 0 0 
0 0 0 0 0 0 0 0 0 
0 0 0 0 0 0 0 11.730699895 11.384839608 
11.167749688 0 0 0 0 0 0 0 0 
0 0 0 0 0 0 12 12 12 
12 0 0 0 11 0 0 11 11 
11 0 0 0 0 0 0 0 11 
11 0 0 0 0 0 0 0 0 
0 0 0 0 0 0 0 0 0 
0 0 0 11 0 0 0 0 0 
0 0 0 0 0 0 0 0 15 
15 15 15 0 0 0 0 0 0 
0 0 0 0 0 0 0 0 0 
0 0 0 0 0 0 0 0 0 
0 0 0 0 0 0 0 0 0 
0 0 0 0 0 0 0 0 0 
12 12 12 12 12 0 0 0 0 
0 0 0 0 0 0 0 0 12 
12 12 12 0 0 0 0 0 14 
14 0 0 0 12 12 0 0 0 
0 0 0 0 0 0 0 0 0 
0 0 0 0 0 0 0 0 0 
0 0 0 0 0 0 0 0 0 
0 0 0 0 0 15 0 0 0 
11 11 11 0 0 0 0 0 0 
0 0 0 0 15 15 15 15 0 
0 0 0 0 0 0 0 0 0 
0 0 0 0 0 0 0 0 0 
0 0 0 0 0 0 0 0 0 
0 14 14 14 14 12 12 12 12 
0 0 0 0 0 0 0 0 0 
0 0 0 12 0 0 14 14 0 
0 0 0 0 11 11 11 11 11 
11 11 0 0 0 0 0 0 0 
0 0 11 11 11 11 0 0 0 
0 11 11 11 11 11 11 11 11 
0 0 0 0 0 0 0 0 11 
11 11 0 0 0 0 0 0 0 
0 0 15 15 15 15 0 0 0 
0 0 0 0 0 0 0 0 0 
0 0 0 15 0 0 0 7.5911231989 0 
0 0 0 0 0 0 0 0 0 
0 0 0 0 0 0 0 0 0 
0 0 0 0 0 0 0 0 0 
0 0 0 0 0 0 0 0 0 
0 0 0 0 0 0 0 0 0 
11 11 11 11 0 11 11 11 11 
0 0 0 12 0 0 0 0 3.1208205747 
0 0 0 11 11 11 11 0 0 
0 0 0 0 0 0 0 0 0 
0 0 0 0 0 0 0 8.7626104606 0 
11 11 11 11 0 0 0 0 0 
11 11 11 11 0 0 0 0 0 
0 0 0 0 0 0 0 0 0 
0 0 0 0 0 0 0 0 0 
0 0 0 0 0 0 0 14 14 
14 0 0 0 0 0 0 0 0 
0 0 0 0 0 0 0 0 0 
0 12 12 12 0 0 0 0 0 
11 11 11 0 0 12 12 11 11 
11 0 0 0 0 0 0 0 0 
0 11 11 0 0 0 0 0 0 
11 11 0 0 0 0 0 0 0 
0 11 11 11 0 0 0 0 0 
0 0 0 11 11 0 0 0 0 
0 0 0 0 0 0 0 0 0 
0 0 0 0 0 15 7.7611766419 3.5702982257 0 
0 0 0 0 0 0 0 0 0 
0 0 0 0 0 0 0 3.8633054866 0 
0 0 0 0 0 0 0 0 0 
0 0 0 0 0 0 0 0 0 
11.315308479 11 0 0 0 0 14 14 14 
0 0 11 11 11 11 11 0 0 
0 0 7.1404549908 7.2481224519 0 0 11 11 0 
0 0 0 11 0 0 0 0 0 
0 0 15 15 15 15 15 15 0 
0 0 15 15 0 0 0 0 3.2400834366 
11.491848639 13.600008346 14.073523816 3.749962348 0 0 0 0 0 
0 0 0 0 0 0 0 0 0 
0 0 0 0 0 0 0 0 14 
14 14 0 0 0 0 0 0 0 
0 0 0 0 0 0 0 0 0 
12 12 12 12 0 0 0 0 0 
0 14 14 0 12 12 12 12 0 
0 0 0 0 0 0 0 0 0 
11 11 0 0 0 0 0 0 0 
0 0 0 0 0 0 0 0 0 
0 0 0 0 11 11 0 0 0 
0 0 0 0 11 11 11 11 0 
0 0 0 0 0 0 0 0 4.4460905862 
0 0 0 0 0 0 12.31923679 15 9.2110615524 
5.1426341863 0 0 0 0 0 0 0 0 
0 0 0 0 0 14 8.8460902485 5.1765545132 3.6763825237 
14 0 0 0 0 0 0 0 0 
0 0 0 0 0 0 0 12 12 
0 0 11 11 11 11 0 0 0 
0 0 0 11.283635088 11 11 11 11 11 
11 11 11 11 0 0 11 11 0 
0 0 11 11 11 11 0 0 0 
0 0 0 0 0 15 0 0 0 
0 0 0 11 11 11 11 11 0 
0 0 0 0 0 0 0 0 0 
0 0 0 0 0 0 0 0 0 
0 0 0 0 0 0 0 0 0 
0 0 0 0 0 0 0 0 0 
14 14 14 14 14 14 14 0 0 
0 0 0 0 0 0 0 0 0 
0 0 0 0 0 0 0 0 0 
0 0 0 0 0 0 0 0 0 
0 0 0 14 14 14 0 12 12 
0 0 0 0 0 0 0 0 0 
0 0 0 0 0 0 0 0 0 
0 0 0 0 0 0 0 0 0 
0 11 11 11 11 0 0 0 0 
5.9120065147 0 0 11 11 11 0 0 0 
0 0 15 15 15 15 0 0 0 
0 0 0 0 0 0 0 0 0 
0 0 0 0 0 0 0 0 0 
0 0 0 0 0 0 0 0 0 
0 0 0 0 0 0 0 0 0 
0 0 0 14 14 14 14 0 0 
0 0 0 0 0 5.7066756374 0 14 4.5664322413 
0 0 0 0 0 0 0 0 0 
0 14 0 0 0 12 12 11 11 
11 11 11 11 11 11 11 0 11 
11 0 0 11 11 11 11 11 11 
0 0 0 0 0 0 0 0 0 
0 15 15 15 0 0 0 0 0 
0 0 11.636827297 12.296548196 11 11 0 0 0 
0 0 0 0 0 0 0 0 0 
0 0 0 0 11.638450379 10.346612078 0 5.9528426122 0 
0 0 0 0 0 0 0 0 0 
0 0 0 2.4721071488 0 6.2955565285 0 0 0 
0 14 14 14 14 14 14 14 0 
0 0 0 0 0 0 0 0 0 
0 0 0 0 0 0 11 11 11 
11 0 0 0 0 12 11.785447096 12 11 
11 11 11 11 11 0 0 0 11 
0 0 0 0 0 0 0 0 11 
11 11 11 0 0 0 0 0 11 
11 11 0 0 0 0 0 0 0 
0 13 13 13 0 0 0 0 0 
0 0 0 0 0 0 0 0 0 
0 0 0 0 0 0 0 0 0 
0 0 0 0 0 0 0 0 0 
0 0 0 0 0 0 0 14 14 
2.6321597291 0 0 0 0 0 0 0 0 
0 0 0 0 0 0 0 0 0 
0 0 0 0 0 0 0 11 11 
11 11 0 0 0 12 12 12 0 
0 0 0 0 0 11 11 0 0 
0 0 0 0 0 0 0 0 11 
11 11 11 11 0 0 0 0 0 
0 15 15 15 15 0 0 0 0 
0 0 0 0 14.383686062 15 14.443654048 13 0 
0 0 0 0 0 0 0 6.4073476582 15 
0 0 0 0 0 0 14 14 14 
14 14 14 13.311466067 0 0 0 0 0 
0 0 0 0 14 14 14 5.2623812439 10.228264265 
10.563657234 0 0 0 0 0 0 0 0 
0 0 14 14 14 0 0 0 0 
0 0 11 11 11 0 0 0 0 
11 11 11 11 11 0 0 0 11 
11 0 0 0 0 0 0 0 5.5138963405 
10.267073413 0 0 0 0 15 15 0 0 
0 0 0 0 0 13 13 13 13 
13 13 13 0 0 0 0 0 0 
0 0 0 0 0 0 0 0 0 
0 0 0 0 0 0 0 0 0 
0 0 0 0 0 0 0 0 0 
0 0 0 0 11 8.2245833138 0 0 0 
0 14 14 0 0 0 0 0 0 
0 0 0 0 0 13.429565595 0 0 11 
11 11 11 0 0 0 0 0 0 
0 0 0 0 0 0 0 0 0 
0 0 0 0 0 0 0 0 11 
11 11 0 0 0 0 0 0 0 
0 0 11 11 11 11 11 0 0 
0 0 0 0 0 0 0 0 13 
13 13 13 0 0 0 0 0 0 
0 0 0 0 0 0 0 0 0 
0 0 0 0 0 0 0 0 0 
11 11 0 0 5.2825073989 0 0 4.4790141382 14 
14 14 14 14 0 0 0 0 0 
0 0 0 0 12 12 13.246211868 12 0 
0 0 0 0 0 0 0 0 0 
0 0 0 0 11 11 0 0 0 
0 11 11 11 11 11 11 11 11 
11 11 11 7.2242113747 10.814368422 0 0 0 0 
11 11 11 11 11 11 0 0 13 
13 13 13 0 0 0 0 0 0 
0 13 13 13 0 0 0 0 0 
0 0 0 0 0 0 0 0 0 
0 0 0 0 0 0 0 0 0 
0 0 0 0 0 0 0 14 14 
14 12 12 12 12.67347153 0 0 0 0 
0 0 0 0 0 14 14 0 0 
0 0 0 0 0 0 0 0 0 
0 0 0 0 0 11 11 11 11 
11 0 0 0 0 0 0 0 0 
0 0 0 0 0 11 11 0 0 
0 0 0 0 0 15 0 0 0 
0 0 5.8348066747 0 0 0 0 0 13 
14.42662925 13 13 3.4810136628 4.0817937663 11 11 11 0 
0 0 0 0 0 0 0 0 0 
0 0 0 0 0 0 0 0 0 
0 0 0 0 0 0 0 6.1468432378 15 
12.311785334 12.076565993 0 0 0 0 0 0 0 
0 0 0 0 0 14 14 14 14 
11 6.1488999048 11 11 0 0 0 0 0 
0 0 0 0 0 0 0 14 14 
14 14 14 0 0 0 0 0 0 
0 12 12 0 0 0 0 0 0 
11 0 0 0 0 0 0 11 11 
11 11 0 0 0 15 10.419053557 10.12554829 0 
0 0 0 15 0 0 0 0 11 
11 11 11 11 3.4727586911 11 11 0 0 
0 0 0 11.654942786 15 15 8.7879157978 0 0 
0 0 0 0 0 0 0 0 0 
0 0 0 0 0 0 0 0 0 
0 0 0 0 0 0 0 0 0 
0 0 0 0 0 0 0 0 0 
0 11 0 0 0 0 0 0 0 
14 0 0 0 0 0 0 0 0 
0 0 0 0 0 0 0 0 0 
12 12 12 12 0 0 0 0 0 
0 0 11 11 11 11 11 11 11 
11 0 0 0 11 11 11 0 0 
0 0 6.3575167492 13 13 13 13 0 0 
0 11 11 11 11 0 0 0 0 
11.813989982 12.129600789 11 11 11 11 11 11 0 
0 0 0 0 0 0 0 0 0 
0 0 0 0 0 0 0 0 0 
0 0 0 0 0 0 0 0 0 
0 0 0 0 0 0 0 0 0 
0 0 0 11 11 0 0 0 0 
0 0 0 0 0 0 0 0 0 
0 0 0 0 0 0 12 12 12 
0 0 0 0 0 0 11 11 11 
11 11 0 0 0 0 0 0 0 
0 11 11 11 0 0 11 11 11 
11 13 13 4.861012141 13 13 0 0 0 
0 0 15 0 0 0 13 12.523621431 15 
15 15 15 15 0 0 0 0 0 
0 0 0 15 15 15 15 0 0 
0 0 0 0 0 0 0 0 0 
0 0 0 0 0 0 0 0 0 
0 0 0 0 0 0 0 0 0 
0 0 0 14 10.567409354 14 14 14 11 
11 11 11 0 0 0 0 0 14 
14 14 0 0 14 14 14 14 14 
0 0 0 0 0 0 0 0 12 
12 12 0 0 0 0 0 0 0 
0 0 0 0 0 0 0 0 0 
0 0 11 11 11 11 11 11 0 
0 0 13 13 0 0 0 0 0 
11 11 11 0 0 0 0 13 13 
11 0 0 0 0 0 0 0 0 
2.5603456506 0 0 0 0 0 0 0 0 
0 0 0 0 0 0 0 0 0 
0 0 0 0 0 0 0 0 0 
0 0 0 0 0 0 0 12 12 
12 12 0 0 0 0 0 0 0 
0 14 14 14 14 14 0.89456841316 11 7.0715340813 
11 12.769877531 2.2830636314 0 0 0 0 0 0 
0 12 12 12 0 0 0 0 4.3269366157 
8.6371488031 0 0 0 0 4.8428534824 11 8.1487191177 11.43713422 
11 11 11 0 0 11 11 11 11 
11 0 15 11.93628766 15 0 0 0 13 
13 13 13 15 15 15 15 15 0 
0 0 0 0 0 0 0 0 0 
0 3.4700311114 0 0 0 0 0 0 0 
0 0 0 0 0 0 0 0 0 
0 0 0 0 0 0 0 0 0 
0 12.759053822 11 8.4879975354 0 0 0 0 0 
0 0 0 14 14 0 0 0 0 
0 0 0 0 0 0 0 0 0 
12 12 12 0 0 0 0 0 0 
11 11 11 11 11 11 11 11 11 
11 0 0 0 0 0 0 0 0 
0 0 0 0 13 0 0 0 0 
0 11 11 11 11 11 11 0 0 
0 0 0 0 13 13 13 13 11 
11 11 11 11 11 11 0 0 0 
0 0 0 0 15 15 15 0 0 
0 0 0 0 0 0 0 0 0 
0 0 0 0 0 0 0 0 0 
0 0 0 0 0 0 0 0 0 
0 0 0 0 0 0 0 12 12 
12 11.30194001 12 11.116781774 11 10.228123355 11 14 14 
14 14 14 14 14 14 14 14 14 
14 14 14 0 0 0 0 12 12 
0 0 0 0 0 0 11 0 0 
0 0 0 0 11 11 11 0 0 
0 0 0 13 13 13 0 0 0 
0 0 0 0 13 13 13 15 15 
0 0 0 0 15 15 0 0 0 
0 0 0 0 0 0 0 0 0 
0 0 0 0 0 0 0 0 0 
0 0 0 0 0 0 0 0 0 
0 0 0 0 0 4.6889981943 0 0 0 
4.0239536781 12 11.71848246 12 0 0 0 0 0 
0 0 0 0 0 14 14 14 14 
14 0 0 0 4.576010748 0 0 0 0 
11.583121964 11.252059343 12 11 0 0 0 0 0 
0 0 0 0 11 11 0 0 0 
0 0 0 0 0 0 0 11 11 
11 0 0 15 15 15 15 0 0 
0 0 0 0 0 11 11 0 0 
0 0 0 0 0 0 15 0 0 
0 0 0 0 0 0 0 0 0 
0 0 0 0 0 0 0 0 0 
0 0 0 0 0 0 0 11.788218746 3.9110128954 
11.646299506 0 0 0 6.5414381771 0 6.3921159575 12 12 
0 0 0 0 0 0 0 14 11 
11 11 11 11 0 0 0 0 0 
0 0 5.7269168315 12 12 12 0 0 0 
11 11 11 11 0 0 0 0 0 
0 0 11 11 11 11 11 11 11 
11 13 0 0 0 15 15 0 0 
0 0 0 0 15 15 15 0 0 
0 0 0 0 0 15 15 0 0 
0 0 0 0 0 0 0 0 0 
0 0 0 0 0 0 0 0 0 
0 0 0 0 0 0 12 12 12 
0 0 0 0 0 0 0 14 14 
14 14 14 0 0 0 14 14 14 
14 14 14 0 0 14 14 14 14 
14 12 0 0 0 0 0 0 0 
0 5.5484387648 7.5983260609 0 6.5410385732 0 7.0761774515 0 0 
0 0 0 0 0 0 0 11 0 
0 13 11 11 11 11 11 11 11 
15 15 0 0 0 15 15 0 0 
0 0 0 0 0 7.496160781 11 11 11 
7.4820413312 0 0 0 0 0 0 0 0 
0 0 0 5.0532342719 9.4906465585 15 0 0 0 
0 0 0 0 0 0 0 0 0 
0 0 3.7542455137 0 0 0 0 0 0 
0 0 0 0 0 11 11 0 0 
0 0 0 0 0 14 0 0 0 
0 0 0 0 0 0 0 11 11.309279213 
11 11 11 11 11 11 11 0 0 
0 0 0 0 0 0 0 11 11 
11 11 11 11 11 11 0 0 0 
0 11 11 11 11 11 0 0 0 
0 0 0 15 15 15 0 0 0 
0 0 7.5122224587 0 0 0 0 0 0 
0 0 0 0 0 0 0 0 0 
0 0 0 0 0 0 0 0 12 
12 7.6722781039 0 0 0 1.3004747874 5.7695335498 14 14 
14 14 14 14 14 14 11 11 14 
14 14 14 0 0 0 0 14 14 
14 14 0 0 0 0 0 0 0 
12 11.632650706 11.474153015 0 0 0 0 0 0 
0 0 0 0 0 0 0 0 11 
11 11 11 11 11 11 11 11 11 
11.897820496 11 11 11 13 13 13 13 0 
0 0 0 0 0 0 11 11 11 
11 0 0 0 0 0 0 0 0 
0 15 15 15 15 0 0 0 0 
0 0 0 0 0 0 0 0 0 
0 0 0 0 12.186063206 15 9.7621177077 8.1747549218 0 
0 0 0 0 0 0 0 0 0 
0 0 9.5447532467 1.8483225109 3.5683105506 6.9103059104 0 0 0 
0 0 0 0 0 0 3.6860322996 0 14 
14 14 0 0 0 0 0 8.093943145 6.4798048616 
0 0 0 0 0 0 0 0 0 
0 0 0 0 0 7.873223077 12 12 0 
0 0 0 0 0 0 0 11 11 
11 3.4605514464 0 13 13 13 0 0 0 
11 11 11 11 11.309805038 0 0 0 0 
0 0 0 15 15 15 15 15 0 
0 15 15 0 0 0 2.8404922889 0 0 
0 0 0 0 0 0 0 0 0 
0 0 0 0 4.9971805297 5.2485718487 0.91687118443 0 0 
0 0 0 0 0 14 14 14 14 
11 11 11 11 14 14 0 0 0 
0 0 0 11 11 0 0 0 0 
0 0 0 0 0 0 0 3.9870885205 0 
0 0 0 0 0 0 0 0 0 
0 0 11 11 13 13 13 11 11 
11 13 13 13 13 13 0 0 0 
0 15 15 0 0 0 0 0 0 
0 0 11 11 6.4422256584 8.3392296425 11 0 0 
0 0 0 0 0 0 0 0 0 
0 14 9.2232918096 0 4.9021087999 11.800831373 12 6.4026552568 8.8915091157 
9.1292420902 4.5315335676 12 0 0 0 0 0 0 
0 0 0 7.1539535716 11 3.0527567757 0 7.240769698 11 
11 11 11 14 14 0 11 11 0 
10.042025676 0 0 0 0 0 0 0 0 
0 0 0 0 0 0 0 0 0 
0 11 11 11 0 0 0 0 11 
11 11 13 13 13 13 13 0 0 
0 0 0 15 0 0 0 0 0 
0 0 0 0 0 0 15 15 15 
15 11.253215851 15 6.4412167149 0 0 0 0 0 
0 0 0 0 0 0 0 0 0 
0 0 0 0 0 12 0 0 0 
0 0 0 0 14 11 12 12 12 
12 0 0 0 0 0 0 14 14 
14 14 0 0 0 8.8307813912 0 0 0 
0 0 0 0 0 0 0 0 0 
0 0 0 0 0 0 0 0 0 
0 10.564085065 8.9134341886 4.1416055015 8.0903576599 0 0 0 0 
13 13 13 0 0 0 0 0 0 
0 11 11 11 11 0 0 0 0 
0 0 0 0 3.7366649906 11 11 6.6753394274 0 
0 15 11.565448832 15 10.061755769 2.6425786118 0 0 0 
0 0 0 0 0 0 0 0 0 
0 0 0 0 0 0 4.9103085285 14 10.580354328 
14 9.5296465174 0 14 14 14 14 14 3.4171485875 
3.9799477398 0 14 14 14 14 11 11 11 
11 11 14 14 0 0 14 0 0 
0 3.2108939242 0 7.6727779008 7.9693063419 0 0 0 0 
0 11 11 11 11 0 0 0 0 
0 11 0 0 0 0 0 11 11 
11 11 13 13 13 0 0 0 0 
0 0 11 11 11 11 11 0 0 
0 0 0 0 6.3028845772 11 0 0 0 
0 0 0 15 15 0 0 0 0 
3.5614731672 14.422853775 5.2924103274 0 0 0 0 0 0 
0 0 0 0 0 0 0 0 0 
0 0 0 0 10.144229349 10.133918961 0 0 0 
14 8.7563785137 6.6806780172 11 11 11 11 11 11 
11.623567663 11.610164665 7.320952384 11 7.761464827 11 11 0 0 
0 0 14 14 14 0 0 14 11.083375619 
4.7957290533 0 0 0 0 0 0 0 0 
0 0 0 0 0 0 0 0 0 
0 0 11 11 11 11 11.623103991 0 0 
11 11 0 0 0 0 0 0 0 
15 15 15 15 0 0 2.5303379379 6.4364398584 2.970313218 
0 15 15 0 0 0 0 0 0 
0 0 0 0 0 0 0 0 0 
0 0 0 4.9808333075 2.940188428 0 0 12 0 
0 0 0 0 0 0 0 11 14 
12 12 14 14 12 12 12 12 11 
11 11 11 11 0 0 11 11 11 
0 0 0 0 14 0 0 0 0 
0 0 0 0 0 0 0 11 11 
11 11 0 0 0 0 0 0 0 
13 13 13 0 0 0 0 0 0 
0 0 0 0 0 0 0 0 11 
11 5.1026423746 0 0 0 0 3.7936182116 0 0 
11 11 3.9311968883 0 0 15 15 15 15 
0 0 0 15 15 0 0 0 0 
0 0 0 0 0 0 0 0 14 
14 10.659181966 0 0 0 0 0 0 0 
0 0 0 0 11 11 11 11 11 
11 11 12 12 14 14 14 0 0 
0 14 14 14 0 0 14 14 0 
0 0 0 0 0 0 0 0 0 
0 0 0 11 11 11 11 11 11 
0 0 0 0 0 11 11 11 11 
11 0 0 0 0 0 0 0 0 
11 11 15 15 15 15 15 15 0 
0 0 0 0 15 15 0 0 0 
0 0 0 0 0 0 0 0 0 
5.1761596321 15 15 3.8586192373 0 0 0 0 0 
0 0 0 0 4.2528212568 0 0 0 0 
0 0 0 0 0 0 0 14 14 
14 14 14 12.748207899 14 14 14 12 12 
12 12 11 11 11 11 0 0 0 
0 11 11 11 0 0 0 11 11 
11 0 0 0 0 0 0 0 0 
0 0 0 0 11 11 11 11 11 
11 0 0 0 11 11 0 0 0 
0 0 0 0 11 0 0 0 0 
0 0 0 0 0 0 15 15 11 
11 5.4904360359 11 0 6.7896506289 11 0 15 15 
15 0 0 0 0 0 0 0 0 
0 0 0 0 0 0 0 0 0 
0 0 0 0 0 0 0 0 0 
0 0 0 0 0 0 0 0 12 
11 11 11 11 12 12 12 12 14 
14 14 14 0 0 0 11 0 0 
0 0 0 0 0 0 0 0 0 
0 0 0 0 0 11 11 0 0 
0 0 0 0 0 0 0 0 0 
0 0 0 0 0 0 0 0 7.3913761061 
0 0 0 0 11 11 11 11 11 
11 11 11 11 0 0 0 0 6.7741131202 
11 0 0 2.7172433922 15 15 15 0 0 
15 15 3.9022023557 0 0 0 0 0 0 
0 7.5209014566 0 0 0 0 0 0 0 
14 14 11 11 11 12 12 12 12 
12 12 0 0 0 0 0 14 14 
0 0 0 14 14 14 14 0 0 
0 0 0 0 0 0 0 0 0 
0 0 0 0 11 0 0 0 0 
0 0 0 11 11 11 11 0 0 
0 0 0 0 0 0 0 0 0 
15 15 11 0 0 0 0 0 7.2575685314 
11 11 6.013816814 15 15 15 0 0 0 
0 0 0 0 0 0 0 0 0 
0 0 0 0 0 0 0 0 0 
0 0 0 0 0 0 0 0 0 
0 0 0 0 0 11 11 11 11 
11 11 12 12 12 0 0 11 11 
11 11 0 0 0 0 0 14 0 
0 0 0 0 0 0 0 0 0 
0 0 0 0 0 0 0 0 0 
0 0 0 0 0 11 11 11 11 
11 0 0 0 0 9.0103287869 15 9.3049102178 12.955438719 
0 0 0 0 0 11 11 11 11 
0 0 0 0 11 11 11 11 11 
15 15 15 15 0 11 0 0 0 
0 0 0 15 15 15 15 15 0 
0 0 0 0 0 0 0 0 0 
0 14 14 14 14 11 11 12 11.658357444 
12 12 12 0 0 0 11 11 0 
11 11 11 11 0 0 0 0 0 
0 0 0 0 0 0 0 0 0 
0 0 0 0 0 11 11 11 11 
0 0 0 0 15 15 15 0 11 
11 0 0 0 13.58474817 13 14.38080946 15 11 
11 11 11 0 15 15 15 15 0 
0 0 0 0 0 0 0 0 0 
0 0 0 0 0 0 0 0 0 
0 0 0 0 0 0 11 11 4.0051534318 
11 11 11 0 0 0 0 0 0 
0 14 14 14 14 14 14 0 0 
0 0 0 0 0 0 0 0 0 
0 0 0 0 11 11 11 0 0 
0 15 15 0 0 0 0 5.3406771686 15 
3.3419473871 15 15 15 10.787750515 0 0 0 0 
13 13 13 13 15 0 0 11 11 
11 11 11 11 15 15 15 15 15 
15 15 15 0 0 0 0 0 0 
0 0 0 0 0 0 0 0 0 
0 12 9.5876283043 0 0 0 0 0 0 
14 14 14 14 14 12 12 12 12 
0 0 0 0 11 11 11 11 11 
11 14 14 14 11 11 0 0 0 
0 0 0 0 0 0 0 0 0 
0 0 0 0 0 0 0 0 0 
0 0 0 0 0 11 11 11 11 
11 0 0 0 0 15 15 15 0 
13 13 13 11 0 0 0 11 11 
11 9.1242185092 15 0 0 0 0 0 0 
0 0 0 0 0 0 0 0 0 
0 0 0 0 0 0 0 0 0 
0 11 11 11 11 11 11 11 11 
0 0 0 0 0 0 0 0 11 
11 14 14 0 0 0 0 0 0 
0 0 0 0 0 0 0 0 0 
0 0 0 0 0 0 0 0 15 
0 0 15 15 15 15 15 0 0 
0 0 11.67286091 11 11 12.443656682 13 11 11 
11 11 0 0 0 0 8.6866857679 6.7182154864 7.2692005666 
0 2.7794411728 0 6.1458309647 0 0 0 0 0 
0 0 0 0 0 0 0 0 0 
0 0 0 12 12 12 12 0 0 
0 0 13.406373631 14 0 0 0 0 11 
11 0 9.0777359214 0 0 0 0 0 0 
0 0 11 11 11 0 0 0 0 
0 0 0 0 0 0 0 0 0 
0 11 11 11 11 11 0 0 0 
15 0 0 0 0 13 13 13 13 
11 0 0 0 0 0 0 11 8.2820417116 
11 15 0 0 0 0 0 0 0 
0 0 0 0 0 0 0 0 0 
0 0 0 1.1779034255 12 12 5.4249940471 7.917281182 12 
0 0 0 0 0 0 0 0 0 
0 0 0 11 11 11 11.636807564 11.578092966 12 
0 0 0 0 0 0 11 11 11 
14 14 14 0 0 0 0 0 0 
0 0 0 0 0 0 0 0 0 
0 0 0 0 0 0 0 0 0 
0 0 0 0 0 11 11 11 0 
11 11 11 0 0 0 0 0 0 
15 15 0 0 0 13 13 13 13 
13 11.607975632 0 0 0 0 0 0 0 
0 0 0 0 0 0 0 0 0 
0 0 0 9.4417308372 9.1941782425 0 0 0 0 
0 0 0 0 0 0 0 0 11 
11 12 12 12 12 0 0 0 0 
0 0 12 12 12 14 14 11 11 
0 0 0 0 0 0 0 0 0 
0 0 0 0 0 0 0 0 0 
0 0 0 0 0 0 11 11 0 
15 15 15 15 0 0 0 0 0 
15 15 15 15 0 13 13 15 15 
15 15 0 0 0 0 0 0 0 
0 0 0 0 0 0 0 0 0 
4.9762654944 0 0 0 0 0 11 12 12 
0 0 0 0 11 11 11 11 0 
0 14 0 0 0 0 0 0 0 
0 0 0 0 0 0 0 0 0 
0 0 0 0 0 0 0 0 0 
0 0 0 0 0 15 14.296526372 15 0 
15 15 0 0 0 0 11 11 11 
11 0 0 0 15 15 15 15 15 
15 15 15 0 0 4.2761959241 15 15 15 
15 0 0 0 0 0 0 0 0 
0 2.6907027946 0 0 0 0 0 0 0 
0 11 11 12 12 12 12 0 0 
0 0 0 14 11 11 11 11 0 
0 0 0 0 0 0 0 0 0 
0 0 11 11 11 11 0 0 0 
0 0 0 0 0 0 0 0 0 
0 0 0 0 0 13.637002326 13 13 0 
0 11 11 11 0 0 0 0 15 
0 0 13 13 13 13 13 0 0 
3.6657126509 2.1331879567 0 0 0 0 0 0 0 
0 0 0 0 0 0 0 0 0 
0 0 0 0 0 0 0 0 0 
0 0 12 0 0 12 12 0 0 
0 0 12.948121387 13.673224483 12.307125828 0 0 0 0 
0 0 8.1317046091 0 0 0 0 0 0 
0 0 0 0 0 0 0 0 0 
0 0 0 0 0 0 11 11 11 
11 0 0 11 11 11 0 0 0 
0 0 0 0 11 11 11 0 0 
0 13.598406668 14.553530099 13 13 15 0 0 0 
0 0 0 0 0 0 0 0 0 
0 0 0 0 0 0 0 0 0 
0 12 12 0 0 0 0 0 0 
0 0 12 0 0 11 11 0 0 
0 0 0 0 0 0 0 0 0 
0 0 0 0 0 0 0 0 0 
0 0 13 13 13 13 0 0 11 
0 0 0 0 0 0 15 0 0 
13 13 13 13 15 0 3.3511256119 0 0 
15 15 15 0 0 0 0 0 0 
0 0 0 0 0 0 0 0 0 
0 0 0 0 0 0 0 0 11 
11 0 0 0 12 12 12 12 14 
14 11 11 11 11 0 0 0 0 
0 0 0 0 0 11 11 11 0 
0 0 0 0 0 0 0 0 0 
0 13 13 13 13 0 0 15 15 
15 15 0 0 0 0 0 11 0 
0 0 0 0 13 13 13 13 15 
0 0 3.5089680853 0 0 15 15 0 0 
0 0 0 0 0 0 0 0 0 
7.8544698625 0 0 0 12 0 0 0 0 
0 0 12 12 12 12 0 0 12 
12 0 0 0 0 0 0 0 0 
0 0 0 2.3521979223 3.3882576413 7.3666440612 0 0 0 
0 0 0 0 0 0 0 0 0 
11.312233436 0 0 0 15 15 0 0 0 
0 0 0 0 0 0 0 0 0 
0 0 0 0 0 15 0 0 0 
0 0 0 0 0 0 0 0 0 
0 0 0 0 0 0 0 0 0 
0 0 4.5050682346 5.7169912885 0 0 0 12 12 
0 0 0 0 0 0 0 14 11 
11 0 0 0 0 3.6971473189 0 0 0 
0 0 0 0 0 0 0 0 0 
0 0 0 12.523630797 13 12.301709279 15 0 0 
11 3.2508328791 9.2439323017 10.062450403 0 0 0 0 2.4991762006 
7.2561808487 0 0 0 0 0 15 15 15 
15 0 0 0 0 0 0 0 0 
0 0 0 10.92354672 14 14 0 0 0 
0 0 0 0 0 0 0 0 0 
0 0 3.4221282471 8.5145807184 12 12 12 0 0 
0 0 0 0 0 0 0 0 0 
0 11 2.7560237139 0 11 11 0 0 0 
0 0 13 13 0 0 11 11 11 
11 0 0 11 11 0 0 15 15 
0 6.5483360789 8.8881367237 0 0 0 0 0 0 
0 0 0 0 0 0 0 0 0 
0 0 0 0 0 0 0 0 0 
0 0 12 12 0 0 0 0 0 
0 0 0 0 11 11 9.9119707657 11 0 
0 11 11 0 0 11 0 0 0 
0 0 0 0 0 0 0 0 13 
13 13 13 0 0 11 0 0 0 
0 0 11 11 11 0 0 0 0 
0 15 15 15 15 0 0 15 15 
0 0 0 0 0 0 0 0 0 
14 14 0 0 0 0 0 0 0 
0 0 11 11 12 0 0 0 0 
14 0 0 0 0 0 0 0 11 
11 0 0 13 13 0 0 15 0 
0 0 0 0 0 0 15 13.78813986 15 
0 0 0 4.8914201117 11 0 0 0 0 
0 0 0 0 0 0 0 0 0 
0 0 0 0 14 14 14 14 0 
0 0 0 0 0 0 0 0 0 
0 0 0 14 14 11 11 11 0 
0 0 0 0 0 0 0 0 0 
0 0 0 11 0 0 0 0 0 
0 0 0 0 0 11 11 11 11 
0 0 0 0 13 13 13 13 15 
15 15 0 0 0 15 15 15 15 
0 15 15 15 15 0 0 0 0 
0 0 0 0 0 0 0 0 0 
0 0 0 0 0 0 0 14 12 
12 0 11 11 0 0 0 0 0 
0 0 0 0 0 0 0 0 0 
0 0 0 0 0 15 15 15 0 
0 0 0 13 13 13 15 0 0 
3.2024787697 0 15 0 0 0 0 0 0 
0 0 0 0 0 0 0 0 0 
0 0 14 14 14 14 0 0 0 
0 0 0 11 11 11 11 11 12 
0 0 14 14 10.241261778 14 0 0 0 
0 11 0 0 0 0 0 0 0 
0 0 0 13.607550741 0 0 0 0 0 
13 13 13 13 13 8.7620489371 11 11 7.4900786659 
0 15 15 15 15 4.0517889305 0 0 0 
0 0 0 0 15 0 0 0 0 
0 0 0 0 0 0 0 0 0 
11 11 11.207354765 11.381179238 0 0 0 0 0 
11 11 0 0 0 0 0 11 0 
0 0 0 0 0 0 0 13 13 
13 0 0 0 0 13 13 11 0 
0 3.190970269 0 4.4035124127 4.7695307614 0 13 15 13 
13 0 0 0 0 0 0 0 0 